created by fftool

5 atoms
4 bonds
1 angles
4 atom types
3 bond types
1 angle types

-2.0 2.0 xlo xhi
-2.0 2.0 ylo yhi
-2.0 2.0 zlo zhi

Masses

   1   15.899  # ODw DC
   2    1.008  # Hw
   3    1.e-16  # M
   4    0.1  # ODw DP

Bond Coeffs

   1   517.630258     0.957200  # Ow-Hw
   2   500.000000     0.240340  # Ow-M
   3   500.000000     0.000000  # ODw DC-DP

Angle Coeffs

   1    37.950526   104.520000  # Hw-Ow-Hw

Atoms

      1       1    1   1.7162 0.039899  0.23186   0.049116  # ODw SWM4-NDP DC
      2       1    2   0.5573 0.338965 -0.531551  0.543074  # Hw SWM4-NDP
      3       1    2   0.5573 -0.453692 -0.135149 -0.684303 # Hw SWM4-NDP
      4       1    3  -1.1146 0.        0.        0.        # M SWM4-NDP
      5       1    4  -1.7162 -0.004865  0.190579  0.03984  # ODw SWM4-NDP DP

Bonds

      1    1       2       1  # Ow-Hw
      2    1       3       1  # Ow-Hw
      3    2       4       1  # Ow-M
      4    3       1       5  # ODw DC-DP

Angles

      1    1       2       1       3  # Hw-Ow-Hw
