LAMMPS Data File

3 atoms
1 bonds
0 angles
3 atom types
1 bond types
0 angle types

-6.0 6.0 xlo xhi
-6.0 6.0 ylo yhi
-6.0 6.0 zlo zhi

Masses

   1   39.948
   2   1e-16  
   3   39.948

Bond Coeffs

   1   500.000000     0.000000  # ODw DC-DP


Atoms

      1       1    1   0.0    0.0	0.0	-2.5
      2       1    2   1.0    1.5	-0.5	-2.51
      3       1    3   -1.0   0.0	0.0	2.5

Bonds

      1    1	1	2  
